         Total SCF energy =    -74.653754521972
@ Step       Energy      Delta E   Gmax     Grms     Xrms     Xmax   Walltime
@ ---- ---------------- -------- -------- -------- -------- -------- --------
@    0     -74.65375452  0.0D+00  0.04782  0.04646  0.00000  0.00000      0.2
         Total SCF energy =    -74.665878979031
         Total SCF energy =    -74.665878979031
@    1     -74.66587898 -1.2D-02  0.01884  0.01667  0.08616  0.18007      0.5
         Total SCF energy =    -74.669548247944
         Total SCF energy =    -74.669548247944
@    2     -74.66954825 -3.7D-03  0.00743  0.00638  0.04686  0.10161      0.8
         Total SCF energy =    -74.669737160542
         Total SCF energy =    -74.669742597373
@    3     -74.66974260 -1.9D-04  0.00029  0.00026  0.01371  0.02754      1.0
         Total SCF energy =    -74.669743224161
         Total SCF energy =    -74.669743224161
@    4     -74.66974322 -6.3D-07  0.00001  0.00001  0.00067  0.00141      1.3
@    4     -74.66974322 -6.3D-07  0.00001  0.00001  0.00067  0.00141      1.3
         Total SCF energy =    -75.624184131242
          Total MP2 energy           -75.775051918270
@ Step       Energy      Delta E   Gmax     Grms     Xrms     Xmax   Walltime
@ ---- ---------------- -------- -------- -------- -------- -------- --------
@    0     -75.77505192  0.0D+00  0.02472  0.02018  0.00000  0.00000      2.8
         Total SCF energy =    -75.627058709915
          Total MP2 energy           -75.776551847394
         Total SCF energy =    -75.627808961320
          Total MP2 energy           -75.776670482015
@    1     -75.77667048 -1.6D-03  0.00179  0.00147  0.02672  0.04991      5.2
         Total SCF energy =    -75.627674915112
          Total MP2 energy           -75.776677822132
         Total SCF energy =    -75.627690426542
          Total MP2 energy           -75.776677928784
@    2     -75.77667793 -7.4D-06  0.00003  0.00002  0.00155  0.00262      7.0
         Total SCF energy =    -75.627688987003
          Total MP2 energy           -75.776677937845
         Total SCF energy =    -75.627688987003
          Total MP2 energy           -75.776677937845
@    3     -75.77667794 -9.1D-09  0.00001  0.00000  0.00009  0.00014      8.9
@    3     -75.77667794 -9.1D-09  0.00001  0.00000  0.00009  0.00014      8.9

 Output coordinates in angstroms (scale by  1.889725989 to convert to a.u.)

  No.       Tag          Charge          X              Y              Z
 ---- ---------------- ---------- -------------- -------------- --------------
    1 O                    8.0000     0.00000000     0.00000000    -0.05069456
    2 H                    1.0000     0.82014273     0.00000000     0.52032203
    3 H                    1.0000    -0.82014273     0.00000000     0.52032203

 Zero-Point correction to Energy  =   12.140 kcal/mol  (  0.019347 au)
 Thermal correction to Energy     =   13.920 kcal/mol  (  0.022183 au)
 Thermal correction to Enthalpy   =   14.513 kcal/mol  (  0.023127 au)
 Total Entropy                    =   45.246 cal/mol-K
   - Translational                =   34.593 cal/mol-K (mol. weight =  18.0106)
   - Rotational                   =   10.641 cal/mol-K (symmetry #  =        2)
   - Vibrational                  =    0.013 cal/mol-K
   - Translational                  =    2.979 cal/mol-K
   - Rotational                     =    2.979 cal/mol-K
   - Vibrational                    =    0.079 cal/mol-K
 P.Frequency       -0.00        0.00        0.00        0.00        0.00        0.00
 P.Frequency     1484.72     3460.15     3551.51

 Normal Eigenvalue ||           Projected Infra Red Intensities
  Mode   [cm**-1]  || [atomic units] [(debye/angs)**2] [(KM/mol)] [arbitrary]
 ------ ---------- || -------------- ----------------- ---------- -----------
    1       -0.000 ||    0.055473           1.280        54.077       3.034
    2        0.000 ||    0.000084           0.002         0.082       0.005
    3        0.000 ||    0.266538           6.149       259.834      14.578
    4        0.000 ||    0.266538           6.149       259.834      14.578
    5        0.000 ||    0.066795           1.541        65.115       3.653
    6        0.000 ||    0.132537           3.058       129.203       7.249
    7     1484.716 ||    0.193397           4.462       188.533      10.577
    8     3460.149 ||    0.152660           3.522       148.821       8.349
    9     3551.507 ||    0.511546          11.802       498.680      27.978
 ----------------------------------------------------------------------------

 Total times  cpu:       22.1s     wall:       28.3s
